3
Step=0  Properties="species:S:1:pos:R:3:force:R:3" Lattice="10.0 0.0 0.0 0.0 10.0 0.0 0.0 0.0 10.0" pbc="F F F" dft_energy=-75.58528778
O       0.0000000      0.0000000      0.0000000   0.0000000   -0.0010112   -0.0000000
H      -0.7546067      0.5900326      0.0000000   -0.0076697   0.0005056   -0.0000000
H       0.7546067      0.5900326      0.0000000   0.0076697   0.0005056   0.0000000
3
Step=1  Properties="species:S:1:pos:R:3:force:R:3" Lattice="10.0 0.0 0.0 0.0 10.0 0.0 0.0 0.0 10.0" pbc="F F F" dft_energy=-75.5855946
O       0.0000000     -0.0009803     -0.0000000   -0.0000000   0.0025996   0.0000000
H      -0.7620421      0.5905228     -0.0000000   -0.0040707   -0.0012998   -0.0000000
H       0.7620421      0.5905228      0.0000000   0.0040707   -0.0012998   0.0000000
3
Step=3  Properties="species:S:1:pos:R:3:force:R:3" Lattice="10.0 0.0 0.0 0.0 10.0 0.0 0.0 0.0 10.0" pbc="F F F" dft_energy=-75.58595962
O       0.0000000      0.0133814     -0.0000000   -0.0000000   -0.0001765   0.0000000
H      -0.7804552      0.5833419     -0.0000000   -0.0000765   0.0000882   -0.0000000
H       0.7804552      0.5833419      0.0000000   0.0000765   0.0000882   0.0000000
23

C        0.01210000      -0.50580000       0.02050000       0.00000000
C       -1.25610000       0.35070000       0.00910000       0.00000000
C        1.26960000       0.36640000       0.02690000       0.00000000
C       -2.54460000      -0.47400000      -0.02160000       0.00000000
C        2.53790000      -0.48640000      -0.00030000       0.00000000
C       -3.80810000       0.37230000      -0.00710000       0.00000000
C        3.78910000       0.37680000      -0.02750000       0.00000000
H        0.00850000      -1.15620000       0.90340000       0.00000000
H        0.01940000      -1.15710000      -0.86180000       0.00000000
H       -1.23760000       1.01530000      -0.86360000       0.00000000
H       -1.26390000       0.99510000       0.89710000       0.00000000
H        1.27220000       1.00300000       0.91990000       0.00000000
H        1.25800000       1.03230000      -0.84460000       0.00000000
H       -2.55050000      -1.10440000      -0.91870000       0.00000000
H       -2.56310000      -1.14990000       0.84160000       0.00000000
H        2.56740000      -1.13740000       0.88120000       0.00000000
H        2.53170000      -1.13590000      -0.88340000       0.00000000
H       -4.69530000      -0.26790000      -0.03070000       0.00000000
H       -3.84270000       1.03600000      -0.87680000       0.00000000
H       -3.85500000       0.98770000       0.89680000       0.00000000
H        3.80590000       1.01570000      -0.91630000       0.00000000
H        3.84250000       1.01800000       0.85810000       0.00000000
H        4.68390000      -0.25330000      -0.04530000       0.00000000